22180045
  -OEChem-08102421102D

 26 26  0     0  0  0  0  0  0999 V2000
    1.3754    0.0000    0.0000 O   0  0  0  0  0  0  0  0  0  0  0  0
    1.3754    4.1554    0.0000 O   0  0  0  0  0  0  0  0  0  0  0  0
    1.8754    1.5388    0.0000 C   0  0  0  0  0  0  0  0  0  0  0  0
    0.8754    1.5388    0.0000 C   0  0  0  0  0  0  0  0  0  0  0  0
    1.8754    5.6943    0.0000 C   0  0  0  0  0  0  0  0  0  0  0  0
    0.8754    5.6943    0.0000 C   0  0  0  0  0  0  0  0  0  0  0  0
    2.1844    0.5878    0.0000 C   0  0  0  0  0  0  0  0  0  0  0  0
    0.5664    0.5878    0.0000 C   0  0  0  0  0  0  0  0  0  0  0  0
    2.1844    4.7432    0.0000 C   0  0  0  0  0  0  0  0  0  0  0  0
    0.5664    4.7432    0.0000 C   0  0  0  0  0  0  0  0  0  0  0  0
    2.4819    1.6678    0.0000 H   0  0  0  0  0  0  0  0  0  0  0  0
    1.8106    2.1554    0.0000 H   0  0  0  0  0  0  0  0  0  0  0  0
    0.9402    2.1554    0.0000 H   0  0  0  0  0  0  0  0  0  0  0  0
    0.2690    1.6678    0.0000 H   0  0  0  0  0  0  0  0  0  0  0  0
    2.4819    5.8232    0.0000 H   0  0  0  0  0  0  0  0  0  0  0  0
    1.8106    6.3109    0.0000 H   0  0  0  0  0  0  0  0  0  0  0  0
    0.9402    6.3109    0.0000 H   0  0  0  0  0  0  0  0  0  0  0  0
    0.2690    5.8232    0.0000 H   0  0  0  0  0  0  0  0  0  0  0  0
    2.4944    0.0508    0.0000 H   0  0  0  0  0  0  0  0  0  0  0  0
    2.7508    0.8400    0.0000 H   0  0  0  0  0  0  0  0  0  0  0  0
    0.0000    0.8400    0.0000 H   0  0  0  0  0  0  0  0  0  0  0  0
    0.2564    0.0508    0.0000 H   0  0  0  0  0  0  0  0  0  0  0  0
    2.4944    4.2063    0.0000 H   0  0  0  0  0  0  0  0  0  0  0  0
    2.7508    4.9954    0.0000 H   0  0  0  0  0  0  0  0  0  0  0  0
    0.0000    4.9954    0.0000 H   0  0  0  0  0  0  0  0  0  0  0  0
    0.2564    4.2063    0.0000 H   0  0  0  0  0  0  0  0  0  0  0  0
  1  7  1  0  0  0  0
  1  8  1  0  0  0  0
  2  9  1  0  0  0  0
  2 10  1  0  0  0  0
  3  4  1  0  0  0  0
  3  7  1  0  0  0  0
  3 11  1  0  0  0  0
  3 12  1  0  0  0  0
  4  8  1  0  0  0  0
  4 13  1  0  0  0  0
  4 14  1  0  0  0  0
  5  6  1  0  0  0  0
  5  9  1  0  0  0  0
  5 15  1  0  0  0  0
  5 16  1  0  0  0  0
  6 10  1  0  0  0  0
  6 17  1  0  0  0  0
  6 18  1  0  0  0  0
  7 19  1  0  0  0  0
  7 20  1  0  0  0  0
  8 21  1  0  0  0  0
  8 22  1  0  0  0  0
  9 23  1  0  0  0  0
  9 24  1  0  0  0  0
 10 25  1  0  0  0  0
 10 26  1  0  0  0  0
M  END
> <PUBCHEM_COMPOUND_CID>
22180045

> <PUBCHEM_COMPOUND_CANONICALIZED>
1

> <PUBCHEM_CACTVS_COMPLEXITY>
22.8

> <PUBCHEM_CACTVS_HBOND_ACCEPTOR>
2

> <PUBCHEM_CACTVS_HBOND_DONOR>
0

> <PUBCHEM_CACTVS_ROTATABLE_BOND>
0

> <PUBCHEM_CACTVS_SUBSKEYS>
AAADceBwMAAAAAAAAAAAAAAAAAAAASJAAAAAAAAAAAAAAAAAAAAAGgAAAAAACACggAIAAAAABAAAAAAAAAAAAAAAAAAAAAAAAAAAAAAAAAACAAAEAAAAAAAAAAAAAAAAAAAAAAAAAAAAAAAAAAAAAAAAAA==

> <PUBCHEM_IUPAC_OPENEYE_NAME>
tetrahydrofuran

> <PUBCHEM_IUPAC_CAS_NAME>
oxolane

> <PUBCHEM_IUPAC_NAME_MARKUP>
oxolane

> <PUBCHEM_IUPAC_NAME>
oxolane

> <PUBCHEM_IUPAC_SYSTEMATIC_NAME>
oxolane

> <PUBCHEM_IUPAC_TRADITIONAL_NAME>
tetrahydrofuran

> <PUBCHEM_IUPAC_INCHI>
InChI=1S/2C4H8O/c2*1-2-4-5-3-1/h2*1-4H2

> <PUBCHEM_IUPAC_INCHIKEY>
WHRNULOCNSKMGB-UHFFFAOYSA-N

> <PUBCHEM_EXACT_MASS>
144.115029749

> <PUBCHEM_MOLECULAR_FORMULA>
C8H16O2

> <PUBCHEM_MOLECULAR_WEIGHT>
144.21

> <PUBCHEM_OPENEYE_CAN_SMILES>
C1CCOC1.C1CCOC1

> <PUBCHEM_OPENEYE_ISO_SMILES>
C1CCOC1.C1CCOC1

> <PUBCHEM_CACTVS_TPSA>
18.5

> <PUBCHEM_MONOISOTOPIC_WEIGHT>
144.115029749

> <PUBCHEM_TOTAL_CHARGE>
0

> <PUBCHEM_HEAVY_ATOM_COUNT>
10

> <PUBCHEM_ATOM_DEF_STEREO_COUNT>
0

> <PUBCHEM_ATOM_UDEF_STEREO_COUNT>
0

> <PUBCHEM_BOND_DEF_STEREO_COUNT>
0

> <PUBCHEM_BOND_UDEF_STEREO_COUNT>
0

> <PUBCHEM_ISOTOPIC_ATOM_COUNT>
0

> <PUBCHEM_COMPONENT_COUNT>
2

> <PUBCHEM_CACTVS_TAUTO_COUNT>
-1

> <PUBCHEM_COORDINATE_TYPE>
1
5
255

$$$$
